
  ___ ___ ___ _ _ _  
 |   |   |_  | | | | 
 | | | | | . | | | | 
 |__ |  _|___|_____|  0.7
 |___|_|             

User: ???@ion-R33-9
Date: Tue Apr  6 17:48:27 2010
Arch: BGP
Pid:  100
Dir:  /gpaw/lib/python2.6/site-packages/gpaw
ase:   /gpaw/lib/python2.6/site-packages/ase  version:  3.3.1
numpy: /gpaw/lib/python2.6/site-packages/numpy
units: Angstrom and eV
Extra parameters: {'blacs': 1}
**NOTE**: please start using occupations=FermiDirac(width).

Memory estimate
---------------
Calculator  485.91 MiB
    Initial overhead  379.02 MiB
    Density  19.48 MiB
        Arrays  5.36 MiB
        Localized functions  6.17 MiB
        Mixer  2.06 MiB
        Interpolator  5.90 MiB
    Hamiltonian  24.84 MiB
        Arrays  3.50 MiB
        Restrictor  3.67 MiB
        XC 3D grid  1.65 MiB
        Poisson  15.55 MiB
        vbar  0.47 MiB
    Wavefunctions  62.57 MiB
        Arrays psit_nG  44.49 MiB
        Eigensolver  1.04 MiB
        Projectors  0.90 MiB
        Overlap op  15.75 MiB
        Kinetic operator  0.38 MiB

Positions:
  0 O     8.9496   24.5522    8.6269
  1 C     9.8369   23.8824    7.8297
  2 O    10.3147   24.4127    6.7962
  3 C    10.2586   22.5069    8.1973
  4 C     9.7956   21.9548    9.3535
  5 C    10.1886   20.6691    9.7194
  6 C    11.0905   21.8361    7.3423
  7 C    11.5174   20.5522    7.6624
  8 C    11.0266   19.9861    8.8472
  9 S    11.5885   18.3508    9.2813
 10 O    28.1333   14.7301   20.7426
 11 C    27.4474   15.3375   21.6018
 12 O    28.0125   16.3029   22.3892
 13 C    25.9869   15.0849   21.6935
 14 C    25.4359   14.0366   21.0104
 15 C    24.0669   13.7800   21.1043
 16 C    25.2389   15.8691   22.5314
 17 C    23.8539   15.7056   22.5825
 18 C    23.2969   14.6329   21.8936
 19 S    21.5139   14.4397   21.9176
 20 O    18.3160   17.3324   27.9612
 21 C    18.7254   17.4155   26.7768
 22 O    19.2643   18.5780   26.2976
 23 C    18.5259   16.2810   25.8396
 24 C    18.0389   15.0989   26.3016
 25 C    17.8379   14.0267   25.4416
 26 C    18.8919   16.4439   24.5216
 27 C    18.7110   15.3967   23.6194
 28 C    18.1409   14.2187   24.0835
 29 S    17.8458   12.8725   22.9494
 30 O    10.9413   12.3160   27.5998
 31 C    10.6709   13.4464   26.8783
 32 O     9.5007   13.8962   26.8030
 33 C    11.7619   14.1215   26.1305
 34 C    13.0471   13.6858   26.2984
 35 C    14.0929   14.3170   25.6295
 36 C    11.4548   15.1530   25.2865
 37 C    12.4740   15.8039   24.5866
 38 C    13.7730   15.3246   24.7206
 39 S    15.1059   16.1757   23.8766
 40 O    14.3510   23.2593   27.5755
 41 C    14.4611   22.0092   27.5230
 42 O    13.8989   21.1920   28.4650
 43 C    15.2230   21.3887   26.4095
 44 C    15.6558   22.1753   25.3855
 45 C    16.3278   21.5993   24.3086
 46 C    15.4270   20.0367   26.4385
 47 C    16.1389   19.4259   25.4144
 48 C    16.6179   20.2392   24.3836
 49 S    17.5699   19.4916   23.0916
 50 O    18.4673   28.9006   21.1980
 51 C    18.0899   28.0627   20.1847
 52 O    17.4109   28.4998   19.2227
 53 C    18.5108   26.6390   20.2204
 54 C    19.2527   26.2080   21.2866
 55 C    19.6400   24.8798   21.3773
 56 C    18.1617   25.8042   19.1985
 57 C    18.5459   24.4610   19.2353
 58 C    19.2469   24.0188   20.3483
 59 S    19.8728   22.3550   20.3833
 60 O     4.2414   20.7900   15.2209
 61 C     4.6011   20.6819   13.9054
 62 O     4.1339   21.4606   13.0378
 63 C     5.5798   19.6412   13.5003
 64 C     6.0428   18.7621   14.4404
 65 C     6.9748   17.7889   14.0863
 66 C     5.9855   19.5958   12.1955
 67 C     6.8846   18.6161   11.7853
 68 C     7.3897   17.7487   12.7504
 69 S     8.5597   16.4991   12.2516
 70 O    17.6672    7.0448   24.8204
 71 C    18.0098    6.6418   23.6811
 72 O    17.6399    5.4019   23.2371
 73 C    18.7169    7.5728   22.7654
 74 C    19.1450    8.7805   23.2313
 75 C    19.8129    9.6676   22.3906
 76 C    18.9917    7.1516   21.4895
 77 C    19.6580    8.0009   20.6163
 78 C    20.0359    9.2610   21.0754
 79 S    20.6879   10.4385   19.9024
 80 O    10.5943    6.6875   21.5703
 81 C    10.5284    7.5054   22.6648
 82 O     9.8824    7.1683   23.6878
 83 C    11.2079    8.8258   22.6575
 84 C    11.9027    9.2075   21.5445
 85 C    12.5768   10.4257   21.5313
 86 C    11.1279    9.6118   23.7727
 87 C    11.7769   10.8439   23.8034
 88 C    12.4750   11.2337   22.6565
 89 S    13.1910   12.8649   22.6104
 90 O     7.3001   19.2989   25.0933
 91 C     7.6688   20.1334   24.2300
 92 O     6.7696   20.9836   23.6470
 93 C     9.0959   20.1630   23.8205
 94 C     9.9900   19.3858   24.5033
 95 C    11.3368   19.3997   24.1564
 96 C     9.4760   20.9769   22.7894
 97 C    10.8109   21.0240   22.4074
 98 C    11.7049   20.1770   23.0545
 99 S    13.4190   20.2217   22.5753
100 O     3.5939   10.5821   11.6508
101 C     4.8082   10.0108   11.3849
102 O     4.9004    9.0031   10.6409
103 C     6.0326   10.5560   12.0243
104 C     5.9166   11.5956   12.9004
105 C     7.0536   12.1616   13.4675
106 C     7.2455   10.0336   11.6735
107 C     8.4167   10.5560   12.2273
108 C     8.2845   11.5769   13.1655
109 S     9.7177   12.0755   14.0945
110 O     9.4876   26.7892   11.9048
111 C    10.3502   26.1941   12.5972
112 O    11.4520   26.8664   13.0505
113 C    10.1597   24.7483   12.8776
114 C     9.0376   24.1422   12.3773
115 C     8.8067   22.7931   12.6103
116 C    11.0588   24.0683   13.6404
117 C    10.8766   22.7052   13.8934
118 C     9.7467   22.0909   13.3674
119 S     9.4997   20.3381   13.5932
120 O    12.9263    6.1540   24.8934
121 C    13.2034    5.9605   23.6837
122 O    12.7786    4.8261   23.0479
123 C    14.0638    6.9456   22.9805
124 C    14.4549    8.0696   23.6526
125 C    15.2591    9.0138   23.0334
126 C    14.4588    6.6984   21.6964
127 C    15.2299    7.6414   21.0186
128 C    15.6149    8.7857   21.7003
129 S    16.7168    9.9509   20.9246
130 O     8.2575   11.7304   24.1396
131 C     7.8999   12.9261   24.2804
132 O     6.9545   13.2660   25.2089
133 C     8.5690   14.0017   23.5054
134 C     9.4860   13.6805   22.5485
135 C    10.0958   14.6911   21.8004
136 C     8.1741   15.2967   23.7233
137 C     8.7491   16.3339   23.0073
138 C     9.7320   16.0046   22.0633
139 S    10.7009   17.3328   21.3884
140 O    15.2152   26.4013   25.6714
141 C    14.1630   25.8819   24.9681
142 O    12.9970   25.9802   25.4243
143 C    14.4008   25.1684   23.6876
144 C    15.6719   25.1172   23.1756
145 C    15.9259   24.4249   21.9976
146 C    13.3518   24.5820   23.0466
147 C    13.5557   23.8798   21.8565
148 C    14.8579   23.7791   21.3716
149 S    15.1229   23.0473   19.7573
150 O    18.7761   27.9232    9.8809
151 C    19.7890   27.2717   10.5298
152 O    20.9438   27.2492   10.0363
153 C    19.5156   26.5413   11.7935
154 C    18.2447   26.5401   12.3023
155 C    17.9716   25.9084   13.5153
156 C    20.5406   25.9002   12.4334
157 C    20.3108   25.2219   13.6325
158 C    19.0167   25.2370   14.1485
159 S    18.6496   24.2213   15.5673
160 O     7.2160   26.2855   16.0714
161 C     7.4678   26.0761   17.2839
162 O     6.9422   26.8922   18.2478
163 C     8.3278   24.9322   17.6804
164 C     8.8177   24.1090   16.7046
165 C     9.6417   23.0461   17.0483
166 C     8.6026   24.7350   19.0016
167 C     9.4497   23.6989   19.3936
168 C     9.9096   22.8379   18.3996
169 S    10.8866   21.4260   18.8655
170 O     5.3392   13.6178   22.3230
171 C     4.8488   13.6274   21.0460
172 O     3.6752   13.2502   20.8054
173 C     5.7168   14.1110   19.9424
174 C     6.9978   14.4828   20.2343
175 C     7.8500   14.9150   19.2203
176 C     5.2128   14.1820   18.6726
177 C     6.0397   14.5741   17.6164
178 C     7.3279   14.9930   17.9283
179 S     8.3638   15.6346   16.6285
180 O    27.0647    8.3764   16.5869
181 C    27.2060    9.4855   15.7986
182 O    28.3205   10.0553   15.6947
183 C    26.0468   10.0336   15.0496
184 C    24.7997    9.5106   15.2514
185 C    23.7046   10.0266   14.5665
186 C    26.2498   11.0935   14.2074
187 C    25.1976   11.6025   13.4553
188 C    23.9248   11.0726   13.6733
189 S    22.5658   11.6968   12.7064
190 O    13.3181    2.8098   16.1343
191 C    12.4360    3.5734   16.5994
192 O    11.1434    3.1507   16.7482
193 C    12.7987    4.9648   16.9704
194 C    14.1199    5.3103   17.0104
195 C    14.4837    6.6094   17.3456
196 C    11.8017    5.8537   17.2584
197 C    12.1199    7.1568   17.6253
198 C    13.4666    7.5128   17.6396
199 S    13.9109    9.1790   18.0795
200 O     5.2639   23.7908   21.2952
201 C     5.2738   23.5430   19.9499
202 O     4.6021   24.2569   19.1645
203 C     6.0539   22.3981   19.4154
204 C     6.7188   21.5830   20.2815
205 C     7.4877   20.5289   19.7995
206 C     6.1129   22.2183   18.0623
207 C     6.8226   21.1432   17.5335
208 C     7.4738   20.2962   18.4246
209 S     8.3658   18.8948   17.7815
210 O    24.3222    7.2969   17.8622
211 C    23.3342    6.5429   18.0436
212 O    23.4817    5.3540   18.7040
213 C    21.9697    7.0026   17.6804
214 C    21.7846    8.2848   17.2466
215 C    20.5067    8.7205   16.8943
216 C    20.9389    6.1056   17.7343
217 C    19.6438    6.5023   17.4195
218 C    19.4508    7.8165   16.9986
219 S    17.7839    8.3878   16.7303
220 Au   17.6679   16.3048   19.8974
221 Au   15.9037   16.3368   14.2653
222 Au   15.3538   18.7650   12.8583
223 Au   13.1948   16.9738   13.5075
224 Au   14.1376   14.2966   13.2156
225 Au   16.8736   14.4246   12.3913
226 Au   15.0618   17.2019   19.1703
227 Au   16.3367   18.7749   15.6445
228 Au   14.1457   17.0797   16.3223
229 Au   14.9939   14.3577   16.0504
230 Au   13.2335   18.4492   11.0553
231 Au   20.3660   15.4729   19.9614
232 Au   14.6737   13.6538   10.6055
233 Au   15.4308   15.5887   21.4806
234 Au   16.1827   18.5027   10.1124
235 Au   13.6247   19.5702   14.9385
236 Au   12.2707   15.1058   15.3783
237 Au   16.7790   12.2390   17.1022
238 Au   13.1619   15.1739   18.2063
239 Au   14.5736   19.5981   17.7536
240 Au   18.4838   21.0548   21.6925
241 Au   10.1377   17.5358   10.9213
242 Au   11.6854   12.4787   10.4076
243 Au   15.5208   12.8027   22.6804
244 Au   14.2499   18.1362   23.0666
245 Au   16.7868   21.2398   16.9654
246 Au   11.5068   17.8517   15.6834
247 Au   13.1856   12.4327   15.1693
248 Au   14.0196   12.4560   17.8115
249 Au   12.3857   17.9070   18.3346
250 Au   13.6857   20.9460   12.5803
251 Au   11.4745   19.1059   13.1684
252 Au   10.4577   16.2216   13.6725
253 Au   11.4607   13.5020   13.1473
254 Au   13.7895   11.6054   12.5345
255 Au   15.8809   11.8475   19.8045
256 Au   13.5916   13.5968   20.3815
257 Au   12.8747   16.4980   20.7085
258 Au   13.7079   19.4149   20.3383
259 Au   16.4667   20.9303   11.5563
260 Au   18.6058   21.9350   14.9034
261 Au   11.8686   20.3061   16.9454
262 Au   10.5906   15.9651   17.5285
263 Au   11.3558   13.2448   17.1916
264 Au   14.8927   10.3780   16.0375
265 Au   16.3367   23.9560   15.6445
266 Au    9.2728   19.6522   15.7713
267 Au   12.0218   10.4478   18.1813
268 Au   19.6025   22.1438   12.1415
269 Au    9.1728   13.9057   15.3976
270 Au   15.4576    9.2546   12.5253
271 Au    9.7318   18.0140   19.4526
272 O    23.6510   24.4973   22.7280
273 C    22.8363   23.8824   23.4600
274 O    22.3158   24.4600   24.5856
275 C    22.4146   22.5069   23.0924
276 C    22.8776   21.9548   21.9361
277 C    22.4845   20.6691   21.5703
278 C    21.5827   21.8361   23.9474
279 C    21.1558   20.5522   23.6272
280 C    21.6466   19.9861   22.4424
281 S    21.0847   18.3508   22.0083
282 O     4.4787   14.6760   10.6237
283 C     5.2258   15.3375    9.6879
284 O     4.7069   16.2239    8.9649
285 C     6.6863   15.0849    9.5961
286 C     7.2373   14.0366   10.2793
287 C     8.6063   13.7800   10.1853
288 C     7.4342   15.8691    8.7583
289 C     8.8193   15.7056    8.7072
290 C     9.3762   14.6329    9.3960
291 S    11.1593   14.4397    9.3721
292 O    14.3572   17.3324    3.3284
293 C    13.9477   17.4155    4.5129
294 O    13.4089   18.5780    4.9921
295 C    14.1472   16.2810    5.4500
296 C    14.6342   15.0989    4.9880
297 C    14.8353   14.0267    5.8481
298 C    13.7812   16.4439    6.7681
299 C    13.9622   15.3967    7.6703
300 C    14.5323   14.2187    7.2062
301 S    14.8273   12.8725    8.3402
302 O    21.7319   12.3160    3.6899
303 C    22.0022   13.4464    4.4113
304 O    23.1725   13.8962    4.4867
305 C    20.9113   14.1215    5.1592
306 C    19.6261   13.6858    4.9913
307 C    18.5803   14.3170    5.6601
308 C    21.2184   15.1530    6.0031
309 C    20.1992   15.8039    6.7031
310 C    18.9002   15.3246    6.5691
311 S    17.5673   16.1757    7.4130
312 O    18.3320   23.3708    3.7094
313 C    18.2121   22.0092    3.7667
314 O    18.7283   21.2589    2.9018
315 C    17.4502   21.3887    4.8801
316 C    17.0173   22.1753    5.9042
317 C    16.3454   21.5993    6.9811
318 C    17.2462   20.0367    4.8512
319 C    16.5343   19.4259    5.8752
320 C    16.0553   20.2392    6.9060
321 S    15.1033   19.4916    8.1980
322 O    14.2368   28.8320   10.1746
323 C    14.5833   28.0627   11.1050
324 O    15.3228   28.5388   12.1528
325 C    14.1624   26.6390   11.0693
326 C    13.4204   26.2080   10.0031
327 C    13.0331   24.8798    9.9123
328 C    14.5115   25.8042   12.0911
329 C    14.1273   24.4610   12.0543
330 C    13.4262   24.0188   10.9414
331 S    12.8003   22.3550   10.9063
332 O    28.4318   20.7900   16.0688
333 C    28.0721   20.6819   17.3842
334 O    28.5393   21.4606   18.2519
335 C    27.0933   19.6412   17.7893
336 C    26.6304   18.7621   16.8493
337 C    25.6984   17.7889   17.2034
338 C    26.6876   19.5958   19.0942
339 C    25.7886   18.6161   19.5044
340 C    25.2835   17.7487   18.5393
341 S    24.1135   16.4991   19.0381
342 O    15.0059    7.0448    6.4693
343 C    14.6634    6.6418    7.6085
344 O    15.0332    5.4019    8.0526
345 C    13.9562    7.5728    8.5242
346 C    13.5282    8.7805    8.0583
347 C    12.8603    9.6676    8.8990
348 C    13.6815    7.1516    9.8001
349 C    13.0152    8.0009   10.6734
350 C    12.6373    9.2610   10.2143
351 S    11.9853   10.4385   11.3873
352 O    22.0789    6.6875    9.7194
353 C    22.1447    7.5054    8.6249
354 O    22.7908    7.1683    7.6019
355 C    21.4652    8.8258    8.6321
356 C    20.7704    9.2075    9.7451
357 C    20.0964   10.4257    9.7583
358 C    21.5453    9.6118    7.5170
359 C    20.8962   10.8439    7.4863
360 C    20.1982   11.2337    8.6332
361 S    19.4821   12.8649    8.6793
362 O    25.4059   19.2245    6.1194
363 C    25.0044   20.1334    7.0597
364 O    25.8300   20.9140    7.5950
365 C    23.5773   20.1630    7.4691
366 C    22.6832   19.3858    6.7863
367 C    21.3364   19.3997    7.1333
368 C    23.1972   20.9769    8.5003
369 C    21.8623   21.0240    8.8822
370 C    20.9683   20.1770    8.2352
371 S    19.2542   20.2217    8.7143
372 O    28.9798   10.5353   19.6607
373 C    27.8650   10.0108   19.9048
374 O    27.7646    8.9132   20.7151
375 C    26.6406   10.5560   19.2653
376 C    26.7565   11.5956   18.3892
377 C    25.6196   12.1616   17.8222
378 C    25.4276   10.0336   19.6162
379 C    24.2565   10.5560   19.0624
380 C    24.3887   11.5769   18.1241
381 S    22.9555   12.0755   17.1951
382 O    23.1855   26.7892   19.3849
383 C    22.3230   26.1941   18.6924
384 O    21.2211   26.8664   18.2392
385 C    22.5135   24.7483   18.4121
386 C    23.6355   24.1422   18.9123
387 C    23.8665   22.7931   18.6794
388 C    21.6144   24.0683   17.6493
389 C    21.7966   22.7052   17.3963
390 C    22.9265   22.0909   17.9222
391 S    23.1735   20.3381   17.6964
392 O    19.7716    6.1713    6.2884
393 C    19.4698    5.9605    7.6060
394 O    19.8598    4.9190    8.1897
395 C    18.6094    6.9456    8.3091
396 C    18.2183    8.0696    7.6371
397 C    17.4141    9.0138    8.2563
398 C    18.2144    6.6984    9.5933
399 C    17.4433    7.6414   10.2711
400 C    17.0583    8.7857    9.5893
401 S    15.9564    9.9509   10.3650
402 O    24.3838   11.6238    7.1626
403 C    24.7733   12.9261    7.0093
404 O    25.6413   13.2382    6.1568
405 C    24.1041   14.0017    7.7843
406 C    23.1872   13.6805    8.7411
407 C    22.5774   14.6911    9.4893
408 C    24.4991   15.2967    7.5663
409 C    23.9241   16.3339    8.2823
410 C    22.9412   16.0046    9.2263
411 S    21.9723   17.3328    9.9013
412 O    17.5441   26.3587    5.6759
413 C    18.5102   25.8819    6.3216
414 O    19.7802   25.9890    5.8246
415 C    18.2724   25.1684    7.6020
416 C    17.0013   25.1172    8.1141
417 C    16.7473   24.4249    9.2921
418 C    19.3214   24.5820    8.2430
419 C    19.1174   23.8798    9.4332
420 C    17.8153   23.7791    9.9181
421 S    17.5503   23.0473   11.5323
422 O    13.8141   27.8698   21.3557
423 C    12.8842   27.2717   20.7599
424 O    11.6264   27.2472   21.2973
425 C    13.1576   26.5413   19.4961
426 C    14.4284   26.5401   18.9874
427 C    14.7016   25.9084   17.7743
428 C    12.1325   25.9002   18.8562
429 C    12.3624   25.2219   17.6571
430 C    13.6564   25.2370   17.1412
431 S    14.0235   24.2213   15.7224
432 O    25.4796   26.3041   15.3264
433 C    25.2054   26.0761   14.0057
434 O    25.6880   26.8254   13.1207
435 C    24.3454   24.9322   13.6093
436 C    23.8555   24.1090   14.5851
437 C    23.0314   23.0461   14.2414
438 C    24.0705   24.7350   12.2880
439 C    23.2235   23.6989   11.8961
440 C    22.7636   22.8379   12.8901
441 S    21.7866   21.4260   12.4241
442 O    27.3340   13.6178    8.9666
443 C    27.8244   13.6274   10.2437
444 O    28.9980   13.2502   10.4843
445 C    26.9564   14.1110   11.3472
446 C    25.6753   14.4828   11.0553
447 C    24.8232   14.9150   12.0693
448 C    27.4604   14.1820   12.6171
449 C    26.6335   14.5741   13.6733
450 C    25.3452   14.9930   13.3613
451 S    24.3094   15.6346   14.6612
452 O     5.6085    8.3764   14.7028
453 C     5.4671    9.4855   15.4911
454 O     4.3526   10.0553   15.5950
455 C     6.6264   10.0336   16.2401
456 C     7.8734    9.5106   16.0382
457 C     8.9686   10.0266   16.7232
458 C     6.4234   11.0935   17.0822
459 C     7.4756   11.6025   17.8344
460 C     8.7484   11.0726   17.6164
461 S    10.1074   11.6968   18.5833
462 O    19.3551    2.8098   15.1553
463 C    20.2372    3.5734   14.6903
464 O    21.5297    3.1507   14.5414
465 C    19.8744    4.9648   14.3193
466 C    18.5533    5.3103   14.2792
467 C    18.1895    6.6094   13.9441
468 C    20.8715    5.8537   14.0313
469 C    20.5533    7.1568   13.6643
470 C    19.2066    7.5128   13.6500
471 S    18.7623    9.1790   13.2102
472 O    27.4085   23.7706   10.1046
473 C    27.3994   23.5430   11.3397
474 O    28.1309   24.3205   12.1952
475 C    26.6193   22.3981   11.8743
476 C    25.9544   21.5830   11.0082
477 C    25.1855   20.5289   11.4902
478 C    26.5603   22.2183   13.2274
479 C    25.8505   21.1432   13.7562
480 C    25.1994   20.2962   12.8650
481 S    24.3074   18.8948   13.5082
482 O     8.2629    7.3641   13.4437
483 C     9.3390    6.5429   13.2461
484 O     9.2035    5.4513   12.6398
485 C    10.7035    7.0026   13.6093
486 C    10.8886    8.2848   14.0431
487 C    12.1664    8.7205   14.3954
488 C    11.7343    6.1056   13.5554
489 C    13.0294    6.5023   13.8701
490 C    13.2223    7.8165   14.2910
491 S    14.8893    8.3878   14.5594
492 Au   15.0053   16.3048   11.3923
493 Au   16.7695   16.3368   17.0244
494 Au   17.3194   18.7650   18.4314
495 Au   19.4784   16.9738   17.7822
496 Au   18.5356   14.2966   18.0741
497 Au   15.7996   14.4246   18.8984
498 Au   17.6114   17.2019   12.1194
499 Au   18.5275   17.0797   14.9674
500 Au   17.6793   14.3577   15.2393
501 Au   19.4396   18.4492   20.2343
502 Au   12.3072   15.4729   11.3283
503 Au   17.9995   13.6538   20.6842
504 Au   17.2424   15.5887    9.8091
505 Au   16.4904   18.5027   21.1772
506 Au   19.0485   19.5702   16.3512
507 Au   20.4025   15.1058   15.9114
508 Au   15.8942   12.2390   14.1874
509 Au   19.5113   15.1739   13.0834
510 Au   18.0995   19.5981   13.5361
511 Au   14.1894   21.0548    9.5972
512 Au   22.5355   17.5358   20.3683
513 Au   20.9878   12.4787   20.8821
514 Au   17.1524   12.8027    8.6093
515 Au   18.4232   18.1362    8.2230
516 Au   15.8864   21.2398   14.3243
517 Au   21.1664   17.8517   15.6062
518 Au   19.4876   12.4327   16.1204
519 Au   18.6535   12.4560   13.4782
520 Au   20.2875   17.9070   12.9551
521 Au   18.9875   20.9460   18.7094
522 Au   21.1987   19.1059   18.1213
523 Au   22.2155   16.2216   17.6171
524 Au   21.2125   13.5020   18.1423
525 Au   18.8837   11.6054   18.7551
526 Au   16.7922   11.8475   11.4852
527 Au   19.0815   13.5968   10.9081
528 Au   19.7985   16.4980   10.5812
529 Au   18.9653   19.4149   10.9514
530 Au   16.2065   20.9303   19.7334
531 Au   14.0674   21.9350   16.3862
532 Au   20.8045   20.3061   14.3443
533 Au   22.0826   15.9651   13.7612
534 Au   21.3174   13.2448   14.0981
535 Au   17.7805   10.3780   15.2522
536 Au   23.4004   19.6522   15.5183
537 Au   20.6514   10.4478   13.1084
538 Au   13.0707   22.1438   19.1481
539 Au   23.5004   13.9057   15.8921
540 Au   17.2156    9.2546   18.7644
541 Au   22.9413   18.0140   11.8371
542 H     9.1139   22.5220    9.9959
543 H     9.8505   20.2153   10.6568
544 H    11.4184   22.3084    6.4104
545 H    12.2098   20.0047    7.0145
546 H    26.0700   13.3966   20.3880
547 H    23.6125   12.9360   20.5751
548 H    25.7264   16.6221   23.1593
549 H    23.2244   16.4008   23.1478
550 H    17.8022   14.9905   27.3652
551 H    17.4574   13.0677   25.8086
552 H    19.3232   17.3920   24.1839
553 H    19.0108   15.5005   22.5713
554 H    13.2545   12.8385   26.9604
555 H    15.1340   14.0308   25.8119
556 H    10.4137   15.4676   25.1598
557 H    12.2561   16.6678   23.9500
558 H    15.4768   23.2553   25.4080
559 H    16.6169   22.1942   23.4359
560 H    15.0308   19.4385   27.2655
561 H    16.3185   18.3457   25.4146
562 H    19.5417   26.9150   22.0712
563 H    20.2324   24.5182   22.2243
564 H    17.5818   26.1861   18.3518
565 H    18.3019   23.7801   18.4132
566 H     5.6807   18.8233   15.4720
567 H     7.3676   17.0824   14.8250
568 H     5.6043   20.3277   11.4758
569 H     7.1855   18.5300   10.7360
570 H    18.9622    9.0553   24.2754
571 H    20.1496   10.6462   22.7484
572 H    18.6876    6.1520   21.1616
573 H    19.8812    7.6879   19.5910
574 H    11.9294    8.5563   20.6646
575 H    13.1673   10.7363   20.6631
576 H    10.5539    9.2731   24.6415
577 H    11.7417   11.4829   24.6919
578 H     9.6446   18.7505   25.3256
579 H    12.0777   18.8259   24.7228
580 H     8.7322   21.5881   22.2676
581 H    11.1491   21.7069   21.6211
582 H     4.9262   11.9852   13.1577
583 H     6.9855   13.0336   14.1263
584 H     7.2994    9.2059   10.9586
585 H     9.4015   10.1772   11.9348
586 H     8.3193   24.7245   11.7909
587 H     7.9158   22.2956   12.2130
588 H    11.9268   24.5899   14.0569
589 H    11.6019   22.1395   14.4875
590 H    14.1309    8.2252   24.6869
591 H    15.6030    9.9052   23.5683
592 H    14.1712    5.7645   21.2021
593 H    15.5237    7.4827   19.9758
594 H     9.7442   12.6321   22.3667
595 H    10.8376   14.4541   21.0305
596 H     7.4001   15.5120   24.4674
597 H     8.4468   17.3733   23.1727
598 H    16.4904   25.6240   23.6973
599 H    16.9344   24.3870   21.5727
600 H    12.3436   24.6614   23.4664
601 H    12.7174   23.4223   21.3208
602 H    17.4382   27.0379   11.7539
603 H    16.9696   25.9386   13.9558
604 H    21.5473   25.9189   12.0031
605 H    21.1202   24.6960   14.1496
606 H     8.5608   24.2877   15.6553
607 H    10.0681   22.3915   16.2810
608 H     8.1572   25.3916   19.7563
609 H     9.7417   23.5673   20.4407
610 H     7.3564   14.4411   21.2681
611 H     8.8907   15.1836   19.4293
612 H     4.1635   13.9321   18.4841
613 H     5.6856   14.5522   16.5805
614 H    24.6627    8.6826   15.9548
615 H    22.6992    9.6226   14.7248
616 H    27.2453   11.5423   14.1260
617 H    25.3618   12.3934   12.7160
618 H    14.8895    4.5665   16.7793
619 H    15.5356    6.9119   17.3772
620 H    10.7540    5.5405   17.2003
621 H    11.3399    7.8771   17.8934
622 H     6.6476   21.7584   21.3600
623 H     8.0820   19.9047   20.4748
624 H     5.6022   22.9193   17.3939
625 H     6.8668   20.9704   16.4531
626 H    22.6368    8.9687   17.1756
627 H    20.3380    9.7447   16.5454
628 H    21.1345    5.0687   18.0271
629 H    18.8034    5.8050   17.4998
630 H    23.5593   22.5220   21.2938
631 H    22.8227   20.2153   20.6328
632 H    21.2548   22.3084   24.8793
633 H    20.4634   20.0047   24.2752
634 H     6.6032   13.3966   10.9017
635 H     9.0607   12.9360   10.7146
636 H     6.9468   16.6221    8.1303
637 H     9.4488   16.4008    8.1419
638 H    14.8710   14.9905    3.9245
639 H    15.2157   13.0677    5.4810
640 H    13.3499   17.3920    7.1057
641 H    13.6623   15.5005    8.7183
642 H    19.4187   12.8385    4.3293
643 H    17.5392   14.0308    5.4778
644 H    22.2595   15.4676    6.1299
645 H    20.4171   16.6678    7.3397
646 H    17.1964   23.2553    5.8817
647 H    16.0563   22.1942    7.8537
648 H    17.6424   19.4385    4.0241
649 H    16.3547   18.3457    5.8751
650 H    13.1315   26.9150    9.2184
651 H    12.4408   24.5182    9.0653
652 H    15.0914   26.1861   12.9379
653 H    14.3713   23.7801   12.8764
654 H    26.9925   18.8233   15.8177
655 H    25.3056   17.0824   16.4646
656 H    27.0688   20.3277   19.8139
657 H    25.4877   18.5300   20.5537
658 H    13.7110    9.0553    7.0142
659 H    12.5235   10.6462    8.5413
660 H    13.9856    6.1520   10.1281
661 H    12.7920    7.6879   11.6987
662 H    20.7438    8.5564   10.6251
663 H    19.5059   10.7363   10.6266
664 H    22.1192    9.2731    6.6482
665 H    20.9314   11.4829    6.5977
666 H    23.0286   18.7505    5.9640
667 H    20.5954   18.8259    6.5669
668 H    23.9410   21.5881    9.0221
669 H    21.5241   21.7069    9.6685
670 H    27.7470   11.9852   18.1319
671 H    25.6877   13.0336   17.1634
672 H    25.3738    9.2059   20.3311
673 H    23.2716   10.1772   19.3548
674 H    24.3538   24.7245   19.4988
675 H    24.7574   22.2956   19.0767
676 H    20.7464   24.5899   17.2327
677 H    21.0713   22.1395   16.8022
678 H    18.5423    8.2252    6.6027
679 H    17.0702    9.9052    7.7214
680 H    18.5020    5.7645   10.0875
681 H    17.1495    7.4827   11.3139
682 H    22.9290   12.6321    8.9230
683 H    21.8356   14.4541   10.2591
684 H    25.2731   15.5120    6.8223
685 H    24.2264   17.3733    8.1170
686 H    16.1828   25.6240    7.5924
687 H    15.7388   24.3870    9.7170
688 H    20.3296   24.6614    7.8233
689 H    19.9557   23.4223    9.9689
690 H    15.2350   27.0379   19.5357
691 H    15.7036   25.9386   17.3338
692 H    11.1258   25.9189   19.2866
693 H    11.5530   24.6960   17.1401
694 H    24.1124   24.2877   15.6344
695 H    22.6050   22.3915   15.0086
696 H    24.5160   25.3916   11.5334
697 H    22.9315   23.5673   10.8489
698 H    25.3168   14.4411   10.0215
699 H    23.7825   15.1836   11.8603
700 H    28.5097   13.9321   12.8056
701 H    26.9876   14.5522   14.7092
702 H     8.0105    8.6826   15.3349
703 H     9.9739    9.6226   16.5649
704 H     5.4279   11.5423   17.1637
705 H     7.3114   12.3934   18.5737
706 H    17.7836    4.5665   14.5104
707 H    17.1376    6.9119   13.9125
708 H    21.9191    5.5405   14.0893
709 H    21.3333    7.8771   13.3963
710 H    26.0255   21.7584    9.9296
711 H    24.5911   19.9047   10.8148
712 H    27.0710   22.9193   13.8958
713 H    25.8064   20.9704   14.8365
714 H    10.0364    8.9687   14.1141
715 H    12.3352    9.7447   14.7443
716 H    11.5386    5.0687   13.2626
717 H    13.8698    5.8050   13.7899
718 H     8.8058   25.4273    8.2171
719 H    28.9655   16.3170   22.1743
720 H    19.3030   19.1904   27.0579
721 H    10.1009   12.0294   28.0074
722 H    13.4508   21.7860   29.0982
723 H    18.0960   29.7795   20.9877
724 H     3.5997   21.5247   15.2763
725 H    17.1857    4.9556   23.9781
726 H    10.0873    5.8777   21.7743
727 H     5.8967   20.8056   24.0481
728 H     2.9266   10.0811   11.1426
729 H    11.3903   27.7973   12.7604
730 H    12.2353    4.3134   23.6774
731 H     6.6471   12.4283   25.6066
732 H    14.8513   26.8220   26.4746
733 H    19.1579   28.3311    9.0794
734 H     6.4138   27.5720   17.7861
735 H     4.6229   13.2717   22.8901
736 H    27.9338    8.1800   16.9876
737 H    11.1144    2.2205   16.4509
738 H     4.6977   24.5740   21.4389
739 H    24.4400    5.2420   18.8581
740 H    22.7136   25.3502   24.6474
741 H     3.5571   14.9853   10.5262
742 H    13.3701   19.1904    4.2318
743 H    22.5722   12.0294    3.2822
744 H    18.8617   23.5737    2.9139
745 H    15.4922   29.4869   11.9888
746 H    29.0734   21.5247   16.0133
747 H    15.4875    4.9556    7.3116
748 H    22.5859    5.8777    9.5154
749 H    26.3648   19.3652    5.9954
750 H    28.6687    8.7149   21.0278
751 H    21.2829   27.7973   18.5292
752 H    20.3330    5.4193    6.0168
753 H    24.9353   11.0806    6.5665
754 H    19.7214   26.4843    4.9846
755 H    11.6575   27.7770   22.1176
756 H    26.0549   27.0924   15.3738
757 H    28.0503   13.2717    8.3996
758 H     4.7394    8.1800   14.3020
759 H    21.5588    2.2205   14.8388
760 H    28.5657   25.0069   11.6527
761 H     7.4695    6.8861   13.1328

                     .------------------------------------------------------------------------------.  
                    /|                                                                              |  
                   / |                                                                              |  
                  /  |                                                                              |  
                 /   |                                                                              |  
                /    |                                                                              |  
               /     |                                                                              |  
              /      |                                                                              |  
             /       |                                                                              |  
            /        |                                                                              |  
           /         |                          H     H                                             |  
          /          |                           O O   O                                            |  
         /           |                           OC C                                               |  
        /            |                              C H                  H                          |  
       /             |                            H C C  OH  H         O                            |  
      /              |                         H       C  C O   HOHH    C                           |  
     /               |         O     H         O C   CHC            C      O                        |  
    /                |       H O H  C C  C H     CC  H CHCH    CHCC   C                             |  
   /                 |      HO   O  O CC  HC   H     C CH     OC                                    |  
  /                  |       H H    HH CHCC  C H  C HCC  SC HuC C  C   C H O                        |  
 *                   |   HO OC   HHO  C        CSu           HC S    CO C  H H                      |  
 |                   |       CCC C     C             S C C       S   HH C C                         |  
 |                   |       O CCH CCHS C      Au C  AuuH H  H       CC  CC H   OH H                |  
 |                   H O     HC  H C C   SSAuH AuAu  S       AuS    Cu C   C  CC  H  O              |  
 |                   |      H  CCHC AHCC H    H  O   H               C      C   O                   |  
 |                O  C     C         O  H CAC    AuS  CuuH   Au  AuH C S C CH   O  C                |  
 |                   |  C     OHHSC  C C   Au H   C     COHH Au C  H H    HC    CO  O H             |  
 |                   | CO       C H Cu  C  AuC HOuu C  H    AuuC  Au   HC   CCC                     |  
 |                  H|   C HC       OAu  CCH   Au  HCAuCCu S HAu  C CHHAu HOCHHO  H                 |  
 |                   |   C H  HO S   CCC AuC   Au  H COCu       AHuC  CC CC CHC C     OH            |  
 |                   |  HO CC H   H  Au H  AH  AuAuC   H Auu AuAuSH C O CH         C                |  
 |                   |H C    CC          Su     AuAu  Au   S        Au SHS  C    C                  |  
 |                   |      CCC AuH  Au     Au S   Au  AuAu C Hu Au         CH C    O               |  
 |                   |  C     C H  C  HC Au Au H  S   CAuC CC OC HO  Au  CHHC  H                    |  
 |                O C|    C   H SSC    C C  HAu AuuHu C HC AuuAuC  HC   COC  O                      |  
 |                   H    H    H    CAHCC O     Au  AuuAu      H  CCCHC CCHH  C H                   |  
 |                H O| C     C H    C    HAS           H   Auu  SCS    H C  C                       |  
 |                 H O    H   O  CC    C  CH      S  SuC Au     H       C     O                     |  
 |              O    |CC  OCCCHHCC  OC      HAuuH Cu C  CCAH      C C   HH C  C  O                  |  
 |             H   C .--HC--CH---CCH-SAH----HH-----O-C--O-------H----CC-----------------------------.  
 |                 O/    H O     H   H       C S     HS HS   OH   HC  HC    OOHH                   /   
 |                 /                  C       S H  Au   CCH CCH      C   H                        /    
 |                /                    C      C  C       H   O C  H   C                          /     
 |               /                     H      CC HH     C  CO       O    O                      /      
 |              /                       C      H     H    C HC       H                         /       
 |             /                         H     H   C         HO C  O                          /        
 |            /                          O          HO   H                                   /         
 |           /                            H           O       O H                           /          
 |          /                                          H                                   /           
 |         /                                                                              /            
 |        /                                                                              /             
 |       /                                                                              /              
 |      /                                                                              /               
 |     /                                                                              /                
 |    /                                                                              /                 
 |   /                                                                              /                  
 |  /                                                                              /                   
 | /                                                                              /                    
 |/                                                                              /                     
 *------------------------------------------------------------------------------*                      

Unit Cell:
           Periodic     X           Y           Z      Points  Spacing
  --------------------------------------------------------------------
  1. axis:    yes   32.000000    0.000000    0.000000   240     0.1333
  2. axis:    yes    0.000000   32.000000    0.000000   240     0.1333
  3. axis:    yes    0.000000    0.000000   32.000000   240     0.1333

Grid-points per volume: 421.87
Effective grid-spacing: 0.1333

O-setup:
  name   : Oxygen
  id     : 5f3f27ba17355653aa2069308cb75aea
  Z      : 8
  valence: 6
  core   : 2
  charge : 0.0
  file   : /soft/apps/gpaw-setups-0.5.3574/O.LDA.gz
  cutoffs: 0.74(comp), 1.30(filt), 0.83(core), lmax=2
  valence states:
            energy   radius
    2s(2)  -23.752   0.741
    2p(4)   -9.195   0.741
    *s       3.459   0.741
    *p      18.016   0.741
    *d       0.000   0.741

Using partial waves for O as LCAO basis

S-setup:
  name   : Sulfur
  id     : 16df0b8f883bfd770ab5c435bc804428
  Z      : 16
  valence: 6
  core   : 10
  charge : 0.0
  file   : /soft/apps/gpaw-setups-0.5.3574/S.LDA.gz
  cutoffs: 0.85(comp), 1.49(filt), 1.66(core), lmax=2
  valence states:
            energy   radius
    3s(2)  -17.278   0.847
    3p(4)   -7.106   0.847
    *s       9.933   0.847
    *p      20.105   0.847
    *d       0.000   0.847

Using partial waves for S as LCAO basis

C-setup:
  name   : Carbon
  id     : d60576a1f549371a163e72552ca58787
  Z      : 6
  valence: 4
  core   : 2
  charge : 0.0
  file   : /soft/apps/gpaw-setups-0.5.3574/C.LDA.gz
  cutoffs: 0.64(comp), 1.14(filt), 1.14(core), lmax=2
  valence states:
            energy   radius
    2s(2)  -13.639   0.635
    2p(2)   -5.414   0.635
    *s      13.573   0.635
    *p      21.797   0.635
    *d       0.000   0.635

Using partial waves for C as LCAO basis

H-setup:
  name   : Hydrogen
  id     : 4766778ce56282eaa64abeb28b7c1de3
  Z      : 1
  valence: 1
  core   : 0
  charge : 0.0
  file   : /soft/apps/gpaw-setups-0.5.3574/H.LDA.gz
  cutoffs: 0.48(comp), 0.85(filt), 0.53(core), lmax=2
  valence states:
            energy   radius
    1s(1)   -6.353   0.476
    *s      20.858   0.476
    *p       0.000   0.476

Using partial waves for H as LCAO basis

Au-setup:
  name   : Gold
  id     : a44207148b704df7bec07bf25e8feca8
  Z      : 79
  valence: 11
  core   : 68
  charge : 0.0
  file   : /soft/apps/gpaw-setups-0.5.3574/Au.LDA.gz
  cutoffs: 1.32(comp), 2.33(filt), 2.81(core), lmax=2
  valence states:
            energy   radius
    6s(1)   -6.048   1.323
    6p(0)   -0.888   1.323
    5d(10)  -7.129   1.323
    *s      21.163   1.323
    *p      26.323   1.323
    *d      20.082   1.323

Using partial waves for Au as LCAO basis

Using the LDA Exchange-Correlation Functional.
Spin-Paired Calculation
Total Charge:      0.000000
Fermi Temperature: 0.100000
Mode:              fd
Eigen Solver:      <gpaw.eigensolvers.rmm_diis.RMM_DIIS instance at 0xa6b87058>
                   (3 nearest neighbors central finite-difference stencil)
Diagonalizer:      ScaLapack - grid: [nprow, npcol, nb] = [5, 5, 64]
Inverse Cholesky:  Lapack
Poisson Solver:    Jacobi 
                   (Mehrstellen finite-difference stencil)
Interpolation:     6th Order
Reference Energy:  -53635200.580024

Gamma Point Calculation
Total number of cores used: 4096
Using Domain Decomposition: 4 x 8 x 16
Parallelization Over bands on 8 Processors
1 k-point in the Irreducible Part of the Brillouin Zone (total: 1)
Linear Mixing Parameter:           0.1
Pulay Mixing with 5 Old Densities
Damping of Long Wave Oscillations: 100

Convergence Criteria:
Total Energy Change per Atom:           0.001 eV / atom
Integral of Absolute Density Change:    0.0001 electrons
Integral of Absolute Eigenstate Change: 1e-09
Number of Bands in Calculation:         1728
Bands to Converge:                      Occupied States Only
Number of Valence Electrons:            3366
                     log10-error:    Total        Iterations:
           Time      WFS    Density  Energy       Fermi  Poisson
iter:   1  17:54:54  +0.3            -4415.56673  3      105    
iter:   2  17:56:44  -0.4            -5514.20755  5             
iter:   3  17:58:34  -0.7            -5682.62208  4             
iter:   4  18:01:07  +0.0   -0.9     -3933.90570  7      101    
iter:   5  18:03:37  +0.0   -0.9     -3593.83801  15     93     
iter:   6  18:06:07  +0.3   -1.0     -3028.82668  24     95     
iter:   7  18:08:38  +0.4   -1.1     -2921.02831  26     94     
iter:   8  18:11:05  +0.5   -1.1     -2940.70606  9      87     
iter:   9  18:13:30  +0.4   -1.2     -3094.01547  12     80     
iter:  10  18:15:54  +0.4   -1.3     -3432.21825  6      78     
iter:  11  18:18:17  +0.3   -1.3     -3637.38850  3      75     
iter:  12  18:20:38  +0.2   -1.3     -4192.08640  7      70     
iter:  13  18:22:57  +0.2   -1.2     -4307.12409  5      64     
iter:  14  18:25:14  +0.1   -1.2     -4761.82590  3      60     
iter:  15  18:27:39  +0.1   -1.2     -4388.02667  7      82     
iter:  16  18:30:04  -0.1   -1.1     -4787.18240  7      79     
iter:  17  18:32:30  -0.1   -1.1     -4644.09637  8      82     
iter:  18  18:34:58  -0.0   -1.1     -5683.63381  15     90     
iter:  19  18:37:23  -0.0   -1.1     -5192.79717  4      79     
iter:  20  18:39:53  -0.2   -1.0     -4643.90825  17     95     
Memory usage: 1005.61 MB

============================================================
Timing:                               incl.     excl.
============================================================
Initialization:                     213.561    25.624   0.8% |
 Hamiltonian:                        44.217     0.001   0.0% |
  Atomic:                             0.000     0.000   0.0% |
  Communicate energies:               2.396     2.396   0.1% |
  Hartree integrate/restrict:         0.038     0.038   0.0% |
  Initialize Hamiltonian:             0.037     0.037   0.0% |
  Poisson:                           40.831    40.831   1.3% ||
  XC 3D grid:                         0.907     0.907   0.0% |
  vbar:                               0.006     0.006   0.0% |
 LCAO initialization:               143.720     8.160   0.3% |
  LCAO eigensolver:                  19.933     0.013   0.0% |
   Atomic Hamiltonian:                0.000     0.000   0.0% |
   Blacs Orbital Layouts:            13.038     0.001   0.0% |
    General diagonalize:             12.918    12.918   0.4% |
    Redistribute coefs:               0.109     0.109   0.0% |
    Send coefs to domains:            0.010     0.010   0.0% |
   Calculate projections:             0.000     0.000   0.0% |
   Distribute overlap matrix:         6.873     1.005   0.0% |
    Distribute overlap matrix:        5.869     5.869   0.2% |
   Potential matrix:                  0.008     0.008   0.0% |
  LCAO to grid:                       0.038     0.038   0.0% |
  Set positions (LCAO WFS):         115.589     6.997   0.2% |
   Basic WFS set positions:           0.002     0.002   0.0% |
   Basis functions set positions:     0.134     0.134   0.0% |
   Distribute overlap matrix:         1.271     1.271   0.0% |
   TCI: Calculate S, T, P:          107.186   107.186   3.4% ||
SCF-cycle:                         2911.908     5.082   0.2% |
 Density:                             6.732     0.004   0.0% |
  Atomic density matrices:            0.002     0.002   0.0% |
  Mix:                                1.219     1.219   0.0% |
  Multipole moments:                  2.325     2.325   0.1% |
  Pseudo density:                     3.183     3.183   0.1% |
 Hamiltonian:                       643.258     0.010   0.0% |
  Atomic:                             0.003     0.003   0.0% |
  Communicate energies:              43.163    43.163   1.4% ||
  Hartree integrate/restrict:         0.688     0.688   0.0% |
  Poisson:                          582.932   582.932  18.6% |------|
  XC 3D grid:                        16.350    16.350   0.5% |
  vbar:                               0.111     0.111   0.0% |
 Orthonormalize:                    635.708     0.010   0.0% |
  Blacs Band Layouts:                 7.387     0.002   0.0% |
   Inverse Cholesky:                  7.385     7.385   0.2% |
  calc_matrix:                      430.032   430.032  13.8% |-----|
  rotate_psi:                       198.279   198.279   6.3% |--|
 RMM-DIIS:                         1162.852   555.482  17.8% |------|
  precondition:                     607.370   607.370  19.4% |-------|
 Subspace diag:                     458.276     0.008   0.0% |
  Blacs Band Layouts:                73.776     0.004   0.0% |
   Diagonalize:                      73.766    73.766   2.4% ||
   Distribute results:                0.005     0.005   0.0% |
  calc_matrix:                      196.672   196.672   6.3% |--|
  rotate_psi:                       187.821   187.821   6.0% |-|
Other:                                0.301     0.301   0.0% |
============================================================
Total:                                       3125.770 100.0%
============================================================
date: Tue Apr  6 18:40:33 2010
